V -t * -v 1.0a5 -a 0
A -t * -n 1 -p 0 -o 0x7fffffff -c 30 -a 1
A -t * -h 1 -m 1073741823 -s 0
c -t * -i 0 -n Blue
c -t * -i 1 -n Red
c -t * -i 2 -n Green
n -t * -a 4 -s 4 -S UP -v circle -c black -i black
n -t * -a 0 -s 0 -S UP -v circle -c black -i black
n -t * -a 5 -s 5 -S UP -v circle -c black -i black
n -t * -a 1 -s 1 -S UP -v circle -c black -i black
n -t * -a 6 -s 6 -S UP -v circle -c black -i black
n -t * -a 2 -s 2 -S UP -v circle -c black -i black
n -t * -a 7 -s 7 -S UP -v circle -c black -i black
n -t * -a 3 -s 3 -S UP -v circle -c black -i black
l -t * -s 0 -d 2 -S UP -r 10000000 -D 0.00020000000000000001 -c black
l -t * -s 1 -d 2 -S UP -r 10000000 -D 0.00020000000000000001 -c black
l -t * -s 2 -d 3 -S UP -r 10000000 -D 0.00020000000000000001 -c black
l -t * -s 3 -d 4 -S UP -r 100000 -D 0.00020000000000000001 -c black
l -t * -s 4 -d 5 -S UP -r 100000000 -D 0.00029999999999999997 -c black
l -t * -s 5 -d 6 -S UP -r 100000000 -D 0.00029999999999999997 -c black
l -t * -s 5 -d 7 -S UP -r 100000000 -D 0.00029999999999999997 -c black
+ -t 0.1 -s 6 -d 5 -p tcp -e 40 -c 1 -i 0 -a 1 -x {6.0 1.0 0 ------- null}
- -t 0.1 -s 6 -d 5 -p tcp -e 40 -c 1 -i 0 -a 1 -x {6.0 1.0 0 ------- null}
h -t 0.1 -s 6 -d 5 -p tcp -e 40 -c 1 -i 0 -a 1 -x {6.0 1.0 -1 ------- null}
r -t 0.1003032 -s 6 -d 5 -p tcp -e 40 -c 1 -i 0 -a 1 -x {6.0 1.0 0 ------- null}
+ -t 0.1003032 -s 5 -d 4 -p tcp -e 40 -c 1 -i 0 -a 1 -x {6.0 1.0 0 ------- null}
- -t 0.1003032 -s 5 -d 4 -p tcp -e 40 -c 1 -i 0 -a 1 -x {6.0 1.0 0 ------- null}
h -t 0.1003032 -s 5 -d 4 -p tcp -e 40 -c 1 -i 0 -a 1 -x {6.0 1.0 -1 ------- null}
r -t 0.1006064 -s 5 -d 4 -p tcp -e 40 -c 1 -i 0 -a 1 -x {6.0 1.0 0 ------- null}
+ -t 0.1006064 -s 4 -d 3 -p tcp -e 40 -c 1 -i 0 -a 1 -x {6.0 1.0 0 ------- null}
- -t 0.1006064 -s 4 -d 3 -p tcp -e 40 -c 1 -i 0 -a 1 -x {6.0 1.0 0 ------- null}
h -t 0.1006064 -s 4 -d 3 -p tcp -e 40 -c 1 -i 0 -a 1 -x {6.0 1.0 -1 ------- null}
r -t 0.1014314 -s 4 -d 3 -p tcp -e 40 -c 1 -i 0 -a 1 -x {6.0 1.0 0 ------- null}
+ -t 0.1014314 -s 3 -d 2 -p tcp -e 40 -c 1 -i 0 -a 1 -x {6.0 1.0 0 ------- null}
- -t 0.1014314 -s 3 -d 2 -p tcp -e 40 -c 1 -i 0 -a 1 -x {6.0 1.0 0 ------- null}
h -t 0.1014314 -s 3 -d 2 -p tcp -e 40 -c 1 -i 0 -a 1 -x {6.0 1.0 -1 ------- null}
r -t 0.1016634 -s 3 -d 2 -p tcp -e 40 -c 1 -i 0 -a 1 -x {6.0 1.0 0 ------- null}
+ -t 0.1016634 -s 2 -d 1 -p tcp -e 40 -c 1 -i 0 -a 1 -x {6.0 1.0 0 ------- null}
- -t 0.1016634 -s 2 -d 1 -p tcp -e 40 -c 1 -i 0 -a 1 -x {6.0 1.0 0 ------- null}
h -t 0.1016634 -s 2 -d 1 -p tcp -e 40 -c 1 -i 0 -a 1 -x {6.0 1.0 -1 ------- null}
r -t 0.1018954 -s 2 -d 1 -p tcp -e 40 -c 1 -i 0 -a 1 -x {6.0 1.0 0 ------- null}
+ -t 0.1018954 -s 1 -d 2 -p ack -e 40 -c 1 -i 1 -a 1 -x {1.0 6.0 0 ------- null}
- -t 0.1018954 -s 1 -d 2 -p ack -e 40 -c 1 -i 1 -a 1 -x {1.0 6.0 0 ------- null}
h -t 0.1018954 -s 1 -d 2 -p ack -e 40 -c 1 -i 1 -a 1 -x {1.0 6.0 -1 ------- null}
r -t 0.1021274 -s 1 -d 2 -p ack -e 40 -c 1 -i 1 -a 1 -x {1.0 6.0 0 ------- null}
+ -t 0.1021274 -s 2 -d 3 -p ack -e 40 -c 1 -i 1 -a 1 -x {1.0 6.0 0 ------- null}
- -t 0.1021274 -s 2 -d 3 -p ack -e 40 -c 1 -i 1 -a 1 -x {1.0 6.0 0 ------- null}
h -t 0.1021274 -s 2 -d 3 -p ack -e 40 -c 1 -i 1 -a 1 -x {1.0 6.0 -1 ------- null}
r -t 0.1023594 -s 2 -d 3 -p ack -e 40 -c 1 -i 1 -a 1 -x {1.0 6.0 0 ------- null}
+ -t 0.1023594 -s 3 -d 4 -p ack -e 40 -c 1 -i 1 -a 1 -x {1.0 6.0 0 ------- null}
- -t 0.1023594 -s 3 -d 4 -p ack -e 40 -c 1 -i 1 -a 1 -x {1.0 6.0 0 ------- null}
h -t 0.1023594 -s 3 -d 4 -p ack -e 40 -c 1 -i 1 -a 1 -x {1.0 6.0 -1 ------- null}
r -t 0.1057594 -s 3 -d 4 -p ack -e 40 -c 1 -i 1 -a 1 -x {1.0 6.0 0 ------- null}
+ -t 0.1057594 -s 4 -d 5 -p ack -e 40 -c 1 -i 1 -a 1 -x {1.0 6.0 0 ------- null}
- -t 0.1057594 -s 4 -d 5 -p ack -e 40 -c 1 -i 1 -a 1 -x {1.0 6.0 0 ------- null}
h -t 0.1057594 -s 4 -d 5 -p ack -e 40 -c 1 -i 1 -a 1 -x {1.0 6.0 -1 ------- null}
r -t 0.1060626 -s 4 -d 5 -p ack -e 40 -c 1 -i 1 -a 1 -x {1.0 6.0 0 ------- null}
+ -t 0.1060626 -s 5 -d 6 -p ack -e 40 -c 1 -i 1 -a 1 -x {1.0 6.0 0 ------- null}
- -t 0.1060626 -s 5 -d 6 -p ack -e 40 -c 1 -i 1 -a 1 -x {1.0 6.0 0 ------- null}
h -t 0.1060626 -s 5 -d 6 -p ack -e 40 -c 1 -i 1 -a 1 -x {1.0 6.0 -1 ------- null}
r -t 0.1063658 -s 5 -d 6 -p ack -e 40 -c 1 -i 1 -a 1 -x {1.0 6.0 0 ------- null}
+ -t 0.1063658 -s 6 -d 5 -p tcp -e 1040 -c 1 -i 2 -a 1 -x {6.0 1.0 1 ------- null}
- -t 0.1063658 -s 6 -d 5 -p tcp -e 1040 -c 1 -i 2 -a 1 -x {6.0 1.0 1 ------- null}
h -t 0.1063658 -s 6 -d 5 -p tcp -e 1040 -c 1 -i 2 -a 1 -x {6.0 1.0 -1 ------- null}
+ -t 0.1063658 -s 6 -d 5 -p tcp -e 1040 -c 1 -i 3 -a 1 -x {6.0 1.0 2 ------- null}
- -t 0.106449 -s 6 -d 5 -p tcp -e 1040 -c 1 -i 3 -a 1 -x {6.0 1.0 2 ------- null}
h -t 0.106449 -s 6 -d 5 -p tcp -e 1040 -c 1 -i 3 -a 1 -x {6.0 1.0 -1 ------- null}
r -t 0.106749 -s 6 -d 5 -p tcp -e 1040 -c 1 -i 2 -a 1 -x {6.0 1.0 1 ------- null}
+ -t 0.106749 -s 5 -d 4 -p tcp -e 1040 -c 1 -i 2 -a 1 -x {6.0 1.0 1 ------- null}
- -t 0.106749 -s 5 -d 4 -p tcp -e 1040 -c 1 -i 2 -a 1 -x {6.0 1.0 1 ------- null}
h -t 0.106749 -s 5 -d 4 -p tcp -e 1040 -c 1 -i 2 -a 1 -x {6.0 1.0 -1 ------- null}
r -t 0.1068322 -s 6 -d 5 -p tcp -e 1040 -c 1 -i 3 -a 1 -x {6.0 1.0 2 ------- null}
+ -t 0.1068322 -s 5 -d 4 -p tcp -e 1040 -c 1 -i 3 -a 1 -x {6.0 1.0 2 ------- null}
- -t 0.1068322 -s 5 -d 4 -p tcp -e 1040 -c 1 -i 3 -a 1 -x {6.0 1.0 2 ------- null}
h -t 0.1068322 -s 5 -d 4 -p tcp -e 1040 -c 1 -i 3 -a 1 -x {6.0 1.0 -1 ------- null}
r -t 0.1071322 -s 5 -d 4 -p tcp -e 1040 -c 1 -i 2 -a 1 -x {6.0 1.0 1 ------- null}
+ -t 0.1071322 -s 4 -d 3 -p tcp -e 1040 -c 1 -i 2 -a 1 -x {6.0 1.0 1 ------- null}
- -t 0.1071322 -s 4 -d 3 -p tcp -e 1040 -c 1 -i 2 -a 1 -x {6.0 1.0 1 ------- null}
h -t 0.1071322 -s 4 -d 3 -p tcp -e 1040 -c 1 -i 2 -a 1 -x {6.0 1.0 -1 ------- null}
r -t 0.1072154 -s 5 -d 4 -p tcp -e 1040 -c 1 -i 3 -a 1 -x {6.0 1.0 2 ------- null}
+ -t 0.1072154 -s 4 -d 3 -p tcp -e 1040 -c 1 -i 3 -a 1 -x {6.0 1.0 2 ------- null}
- -t 0.1233822 -s 4 -d 3 -p tcp -e 1040 -c 1 -i 3 -a 1 -x {6.0 1.0 2 ------- null}
h -t 0.1233822 -s 4 -d 3 -p tcp -e 1040 -c 1 -i 3 -a 1 -x {6.0 1.0 -1 ------- null}
r -t 0.1235822 -s 4 -d 3 -p tcp -e 1040 -c 1 -i 2 -a 1 -x {6.0 1.0 1 ------- null}
+ -t 0.1235822 -s 3 -d 2 -p tcp -e 1040 -c 1 -i 2 -a 1 -x {6.0 1.0 1 ------- null}
- -t 0.1235822 -s 3 -d 2 -p tcp -e 1040 -c 1 -i 2 -a 1 -x {6.0 1.0 1 ------- null}
h -t 0.1235822 -s 3 -d 2 -p tcp -e 1040 -c 1 -i 2 -a 1 -x {6.0 1.0 -1 ------- null}
r -t 0.1246142 -s 3 -d 2 -p tcp -e 1040 -c 1 -i 2 -a 1 -x {6.0 1.0 1 ------- null}
+ -t 0.1246142 -s 2 -d 1 -p tcp -e 1040 -c 1 -i 2 -a 1 -x {6.0 1.0 1 ------- null}
- -t 0.1246142 -s 2 -d 1 -p tcp -e 1040 -c 1 -i 2 -a 1 -x {6.0 1.0 1 ------- null}
h -t 0.1246142 -s 2 -d 1 -p tcp -e 1040 -c 1 -i 2 -a 1 -x {6.0 1.0 -1 ------- null}
r -t 0.1256462 -s 2 -d 1 -p tcp -e 1040 -c 1 -i 2 -a 1 -x {6.0 1.0 1 ------- null}
+ -t 0.1256462 -s 1 -d 2 -p ack -e 40 -c 1 -i 4 -a 1 -x {1.0 6.0 1 ------- null}
- -t 0.1256462 -s 1 -d 2 -p ack -e 40 -c 1 -i 4 -a 1 -x {1.0 6.0 1 ------- null}
h -t 0.1256462 -s 1 -d 2 -p ack -e 40 -c 1 -i 4 -a 1 -x {1.0 6.0 -1 ------- null}
r -t 0.1258782 -s 1 -d 2 -p ack -e 40 -c 1 -i 4 -a 1 -x {1.0 6.0 1 ------- null}
+ -t 0.1258782 -s 2 -d 3 -p ack -e 40 -c 1 -i 4 -a 1 -x {1.0 6.0 1 ------- null}
- -t 0.1258782 -s 2 -d 3 -p ack -e 40 -c 1 -i 4 -a 1 -x {1.0 6.0 1 ------- null}
h -t 0.1258782 -s 2 -d 3 -p ack -e 40 -c 1 -i 4 -a 1 -x {1.0 6.0 -1 ------- null}
r -t 0.1261102 -s 2 -d 3 -p ack -e 40 -c 1 -i 4 -a 1 -x {1.0 6.0 1 ------- null}
+ -t 0.1261102 -s 3 -d 4 -p ack -e 40 -c 1 -i 4 -a 1 -x {1.0 6.0 1 ------- null}
- -t 0.1261102 -s 3 -d 4 -p ack -e 40 -c 1 -i 4 -a 1 -x {1.0 6.0 1 ------- null}
h -t 0.1261102 -s 3 -d 4 -p ack -e 40 -c 1 -i 4 -a 1 -x {1.0 6.0 -1 ------- null}
r -t 0.1295102 -s 3 -d 4 -p ack -e 40 -c 1 -i 4 -a 1 -x {1.0 6.0 1 ------- null}
+ -t 0.1295102 -s 4 -d 5 -p ack -e 40 -c 1 -i 4 -a 1 -x {1.0 6.0 1 ------- null}
- -t 0.1295102 -s 4 -d 5 -p ack -e 40 -c 1 -i 4 -a 1 -x {1.0 6.0 1 ------- null}
h -t 0.1295102 -s 4 -d 5 -p ack -e 40 -c 1 -i 4 -a 1 -x {1.0 6.0 -1 ------- null}
r -t 0.1298134 -s 4 -d 5 -p ack -e 40 -c 1 -i 4 -a 1 -x {1.0 6.0 1 ------- null}
+ -t 0.1298134 -s 5 -d 6 -p ack -e 40 -c 1 -i 4 -a 1 -x {1.0 6.0 1 ------- null}
- -t 0.1298134 -s 5 -d 6 -p ack -e 40 -c 1 -i 4 -a 1 -x {1.0 6.0 1 ------- null}
h -t 0.1298134 -s 5 -d 6 -p ack -e 40 -c 1 -i 4 -a 1 -x {1.0 6.0 -1 ------- null}
r -t 0.1301166 -s 5 -d 6 -p ack -e 40 -c 1 -i 4 -a 1 -x {1.0 6.0 1 ------- null}
+ -t 0.1301166 -s 6 -d 5 -p tcp -e 1040 -c 1 -i 5 -a 1 -x {6.0 1.0 3 ------- null}
- -t 0.1301166 -s 6 -d 5 -p tcp -e 1040 -c 1 -i 5 -a 1 -x {6.0 1.0 3 ------- null}
h -t 0.1301166 -s 6 -d 5 -p tcp -e 1040 -c 1 -i 5 -a 1 -x {6.0 1.0 -1 ------- null}
+ -t 0.1301166 -s 6 -d 5 -p tcp -e 1040 -c 1 -i 6 -a 1 -x {6.0 1.0 4 ------- null}
- -t 0.1301998 -s 6 -d 5 -p tcp -e 1040 -c 1 -i 6 -a 1 -x {6.0 1.0 4 ------- null}
h -t 0.1301998 -s 6 -d 5 -p tcp -e 1040 -c 1 -i 6 -a 1 -x {6.0 1.0 -1 ------- null}
r -t 0.1304998 -s 6 -d 5 -p tcp -e 1040 -c 1 -i 5 -a 1 -x {6.0 1.0 3 ------- null}
+ -t 0.1304998 -s 5 -d 4 -p tcp -e 1040 -c 1 -i 5 -a 1 -x {6.0 1.0 3 ------- null}
- -t 0.1304998 -s 5 -d 4 -p tcp -e 1040 -c 1 -i 5 -a 1 -x {6.0 1.0 3 ------- null}
h -t 0.1304998 -s 5 -d 4 -p tcp -e 1040 -c 1 -i 5 -a 1 -x {6.0 1.0 -1 ------- null}
r -t 0.130583 -s 6 -d 5 -p tcp -e 1040 -c 1 -i 6 -a 1 -x {6.0 1.0 4 ------- null}
+ -t 0.130583 -s 5 -d 4 -p tcp -e 1040 -c 1 -i 6 -a 1 -x {6.0 1.0 4 ------- null}
- -t 0.130583 -s 5 -d 4 -p tcp -e 1040 -c 1 -i 6 -a 1 -x {6.0 1.0 4 ------- null}
h -t 0.130583 -s 5 -d 4 -p tcp -e 1040 -c 1 -i 6 -a 1 -x {6.0 1.0 -1 ------- null}
r -t 0.130883 -s 5 -d 4 -p tcp -e 1040 -c 1 -i 5 -a 1 -x {6.0 1.0 3 ------- null}
+ -t 0.130883 -s 4 -d 3 -p tcp -e 1040 -c 1 -i 5 -a 1 -x {6.0 1.0 3 ------- null}
r -t 0.1309662 -s 5 -d 4 -p tcp -e 1040 -c 1 -i 6 -a 1 -x {6.0 1.0 4 ------- null}
+ -t 0.1309662 -s 4 -d 3 -p tcp -e 1040 -c 1 -i 6 -a 1 -x {6.0 1.0 4 ------- null}
- -t 0.1396322 -s 4 -d 3 -p tcp -e 1040 -c 1 -i 5 -a 1 -x {6.0 1.0 3 ------- null}
h -t 0.1396322 -s 4 -d 3 -p tcp -e 1040 -c 1 -i 5 -a 1 -x {6.0 1.0 -1 ------- null}
r -t 0.1398322 -s 4 -d 3 -p tcp -e 1040 -c 1 -i 3 -a 1 -x {6.0 1.0 2 ------- null}
+ -t 0.1398322 -s 3 -d 2 -p tcp -e 1040 -c 1 -i 3 -a 1 -x {6.0 1.0 2 ------- null}
- -t 0.1398322 -s 3 -d 2 -p tcp -e 1040 -c 1 -i 3 -a 1 -x {6.0 1.0 2 ------- null}
h -t 0.1398322 -s 3 -d 2 -p tcp -e 1040 -c 1 -i 3 -a 1 -x {6.0 1.0 -1 ------- null}
r -t 0.1408642 -s 3 -d 2 -p tcp -e 1040 -c 1 -i 3 -a 1 -x {6.0 1.0 2 ------- null}
+ -t 0.1408642 -s 2 -d 1 -p tcp -e 1040 -c 1 -i 3 -a 1 -x {6.0 1.0 2 ------- null}
- -t 0.1408642 -s 2 -d 1 -p tcp -e 1040 -c 1 -i 3 -a 1 -x {6.0 1.0 2 ------- null}
h -t 0.1408642 -s 2 -d 1 -p tcp -e 1040 -c 1 -i 3 -a 1 -x {6.0 1.0 -1 ------- null}
r -t 0.1418962 -s 2 -d 1 -p tcp -e 1040 -c 1 -i 3 -a 1 -x {6.0 1.0 2 ------- null}
+ -t 0.1418962 -s 1 -d 2 -p ack -e 40 -c 1 -i 7 -a 1 -x {1.0 6.0 2 ------- null}
- -t 0.1418962 -s 1 -d 2 -p ack -e 40 -c 1 -i 7 -a 1 -x {1.0 6.0 2 ------- null}
h -t 0.1418962 -s 1 -d 2 -p ack -e 40 -c 1 -i 7 -a 1 -x {1.0 6.0 -1 ------- null}
r -t 0.1421282 -s 1 -d 2 -p ack -e 40 -c 1 -i 7 -a 1 -x {1.0 6.0 2 ------- null}
+ -t 0.1421282 -s 2 -d 3 -p ack -e 40 -c 1 -i 7 -a 1 -x {1.0 6.0 2 ------- null}
- -t 0.1421282 -s 2 -d 3 -p ack -e 40 -c 1 -i 7 -a 1 -x {1.0 6.0 2 ------- null}
h -t 0.1421282 -s 2 -d 3 -p ack -e 40 -c 1 -i 7 -a 1 -x {1.0 6.0 -1 ------- null}
r -t 0.1423602 -s 2 -d 3 -p ack -e 40 -c 1 -i 7 -a 1 -x {1.0 6.0 2 ------- null}
+ -t 0.1423602 -s 3 -d 4 -p ack -e 40 -c 1 -i 7 -a 1 -x {1.0 6.0 2 ------- null}
- -t 0.1423602 -s 3 -d 4 -p ack -e 40 -c 1 -i 7 -a 1 -x {1.0 6.0 2 ------- null}
h -t 0.1423602 -s 3 -d 4 -p ack -e 40 -c 1 -i 7 -a 1 -x {1.0 6.0 -1 ------- null}
r -t 0.1457602 -s 3 -d 4 -p ack -e 40 -c 1 -i 7 -a 1 -x {1.0 6.0 2 ------- null}
+ -t 0.1457602 -s 4 -d 5 -p ack -e 40 -c 1 -i 7 -a 1 -x {1.0 6.0 2 ------- null}
- -t 0.1457602 -s 4 -d 5 -p ack -e 40 -c 1 -i 7 -a 1 -x {1.0 6.0 2 ------- null}
h -t 0.1457602 -s 4 -d 5 -p ack -e 40 -c 1 -i 7 -a 1 -x {1.0 6.0 -1 ------- null}
r -t 0.1460634 -s 4 -d 5 -p ack -e 40 -c 1 -i 7 -a 1 -x {1.0 6.0 2 ------- null}
+ -t 0.1460634 -s 5 -d 6 -p ack -e 40 -c 1 -i 7 -a 1 -x {1.0 6.0 2 ------- null}
- -t 0.1460634 -s 5 -d 6 -p ack -e 40 -c 1 -i 7 -a 1 -x {1.0 6.0 2 ------- null}
h -t 0.1460634 -s 5 -d 6 -p ack -e 40 -c 1 -i 7 -a 1 -x {1.0 6.0 -1 ------- null}
r -t 0.1463666 -s 5 -d 6 -p ack -e 40 -c 1 -i 7 -a 1 -x {1.0 6.0 2 ------- null}
+ -t 0.1463666 -s 6 -d 5 -p tcp -e 1040 -c 1 -i 8 -a 1 -x {6.0 1.0 5 ------- null}
- -t 0.1463666 -s 6 -d 5 -p tcp -e 1040 -c 1 -i 8 -a 1 -x {6.0 1.0 5 ------- null}
h -t 0.1463666 -s 6 -d 5 -p tcp -e 1040 -c 1 -i 8 -a 1 -x {6.0 1.0 -1 ------- null}
+ -t 0.1463666 -s 6 -d 5 -p tcp -e 1040 -c 1 -i 9 -a 1 -x {6.0 1.0 6 ------- null}
- -t 0.1464498 -s 6 -d 5 -p tcp -e 1040 -c 1 -i 9 -a 1 -x {6.0 1.0 6 ------- null}
h -t 0.1464498 -s 6 -d 5 -p tcp -e 1040 -c 1 -i 9 -a 1 -x {6.0 1.0 -1 ------- null}
r -t 0.1467498 -s 6 -d 5 -p tcp -e 1040 -c 1 -i 8 -a 1 -x {6.0 1.0 5 ------- null}
+ -t 0.1467498 -s 5 -d 4 -p tcp -e 1040 -c 1 -i 8 -a 1 -x {6.0 1.0 5 ------- null}
- -t 0.1467498 -s 5 -d 4 -p tcp -e 1040 -c 1 -i 8 -a 1 -x {6.0 1.0 5 ------- null}
h -t 0.1467498 -s 5 -d 4 -p tcp -e 1040 -c 1 -i 8 -a 1 -x {6.0 1.0 -1 ------- null}
r -t 0.146833 -s 6 -d 5 -p tcp -e 1040 -c 1 -i 9 -a 1 -x {6.0 1.0 6 ------- null}
+ -t 0.146833 -s 5 -d 4 -p tcp -e 1040 -c 1 -i 9 -a 1 -x {6.0 1.0 6 ------- null}
- -t 0.146833 -s 5 -d 4 -p tcp -e 1040 -c 1 -i 9 -a 1 -x {6.0 1.0 6 ------- null}
h -t 0.146833 -s 5 -d 4 -p tcp -e 1040 -c 1 -i 9 -a 1 -x {6.0 1.0 -1 ------- null}
r -t 0.147133 -s 5 -d 4 -p tcp -e 1040 -c 1 -i 8 -a 1 -x {6.0 1.0 5 ------- null}
+ -t 0.147133 -s 4 -d 3 -p tcp -e 1040 -c 1 -i 8 -a 1 -x {6.0 1.0 5 ------- null}
r -t 0.1472162 -s 5 -d 4 -p tcp -e 1040 -c 1 -i 9 -a 1 -x {6.0 1.0 6 ------- null}
+ -t 0.1472162 -s 4 -d 3 -p tcp -e 1040 -c 1 -i 9 -a 1 -x {6.0 1.0 6 ------- null}
- -t 0.1558822 -s 4 -d 3 -p tcp -e 1040 -c 1 -i 6 -a 1 -x {6.0 1.0 4 ------- null}
h -t 0.1558822 -s 4 -d 3 -p tcp -e 1040 -c 1 -i 6 -a 1 -x {6.0 1.0 -1 ------- null}
r -t 0.1560822 -s 4 -d 3 -p tcp -e 1040 -c 1 -i 5 -a 1 -x {6.0 1.0 3 ------- null}
+ -t 0.1560822 -s 3 -d 2 -p tcp -e 1040 -c 1 -i 5 -a 1 -x {6.0 1.0 3 ------- null}
- -t 0.1560822 -s 3 -d 2 -p tcp -e 1040 -c 1 -i 5 -a 1 -x {6.0 1.0 3 ------- null}
h -t 0.1560822 -s 3 -d 2 -p tcp -e 1040 -c 1 -i 5 -a 1 -x {6.0 1.0 -1 ------- null}
r -t 0.1571142 -s 3 -d 2 -p tcp -e 1040 -c 1 -i 5 -a 1 -x {6.0 1.0 3 ------- null}
+ -t 0.1571142 -s 2 -d 1 -p tcp -e 1040 -c 1 -i 5 -a 1 -x {6.0 1.0 3 ------- null}
- -t 0.1571142 -s 2 -d 1 -p tcp -e 1040 -c 1 -i 5 -a 1 -x {6.0 1.0 3 ------- null}
h -t 0.1571142 -s 2 -d 1 -p tcp -e 1040 -c 1 -i 5 -a 1 -x {6.0 1.0 -1 ------- null}
r -t 0.1581462 -s 2 -d 1 -p tcp -e 1040 -c 1 -i 5 -a 1 -x {6.0 1.0 3 ------- null}
+ -t 0.1581462 -s 1 -d 2 -p ack -e 40 -c 1 -i 10 -a 1 -x {1.0 6.0 3 ------- null}
- -t 0.1581462 -s 1 -d 2 -p ack -e 40 -c 1 -i 10 -a 1 -x {1.0 6.0 3 ------- null}
h -t 0.1581462 -s 1 -d 2 -p ack -e 40 -c 1 -i 10 -a 1 -x {1.0 6.0 -1 ------- null}
r -t 0.1583782 -s 1 -d 2 -p ack -e 40 -c 1 -i 10 -a 1 -x {1.0 6.0 3 ------- null}
+ -t 0.1583782 -s 2 -d 3 -p ack -e 40 -c 1 -i 10 -a 1 -x {1.0 6.0 3 ------- null}
- -t 0.1583782 -s 2 -d 3 -p ack -e 40 -c 1 -i 10 -a 1 -x {1.0 6.0 3 ------- null}
h -t 0.1583782 -s 2 -d 3 -p ack -e 40 -c 1 -i 10 -a 1 -x {1.0 6.0 -1 ------- null}
r -t 0.1586102 -s 2 -d 3 -p ack -e 40 -c 1 -i 10 -a 1 -x {1.0 6.0 3 ------- null}
+ -t 0.1586102 -s 3 -d 4 -p ack -e 40 -c 1 -i 10 -a 1 -x {1.0 6.0 3 ------- null}
- -t 0.1586102 -s 3 -d 4 -p ack -e 40 -c 1 -i 10 -a 1 -x {1.0 6.0 3 ------- null}
h -t 0.1586102 -s 3 -d 4 -p ack -e 40 -c 1 -i 10 -a 1 -x {1.0 6.0 -1 ------- null}
r -t 0.1620102 -s 3 -d 4 -p ack -e 40 -c 1 -i 10 -a 1 -x {1.0 6.0 3 ------- null}
+ -t 0.1620102 -s 4 -d 5 -p ack -e 40 -c 1 -i 10 -a 1 -x {1.0 6.0 3 ------- null}
- -t 0.1620102 -s 4 -d 5 -p ack -e 40 -c 1 -i 10 -a 1 -x {1.0 6.0 3 ------- null}
h -t 0.1620102 -s 4 -d 5 -p ack -e 40 -c 1 -i 10 -a 1 -x {1.0 6.0 -1 ------- null}
r -t 0.1623134 -s 4 -d 5 -p ack -e 40 -c 1 -i 10 -a 1 -x {1.0 6.0 3 ------- null}
+ -t 0.1623134 -s 5 -d 6 -p ack -e 40 -c 1 -i 10 -a 1 -x {1.0 6.0 3 ------- null}
- -t 0.1623134 -s 5 -d 6 -p ack -e 40 -c 1 -i 10 -a 1 -x {1.0 6.0 3 ------- null}
h -t 0.1623134 -s 5 -d 6 -p ack -e 40 -c 1 -i 10 -a 1 -x {1.0 6.0 -1 ------- null}
r -t 0.1626166 -s 5 -d 6 -p ack -e 40 -c 1 -i 10 -a 1 -x {1.0 6.0 3 ------- null}
+ -t 0.1626166 -s 6 -d 5 -p tcp -e 1040 -c 1 -i 11 -a 1 -x {6.0 1.0 7 ------- null}
- -t 0.1626166 -s 6 -d 5 -p tcp -e 1040 -c 1 -i 11 -a 1 -x {6.0 1.0 7 ------- null}
h -t 0.1626166 -s 6 -d 5 -p tcp -e 1040 -c 1 -i 11 -a 1 -x {6.0 1.0 -1 ------- null}
+ -t 0.1626166 -s 6 -d 5 -p tcp -e 1040 -c 1 -i 12 -a 1 -x {6.0 1.0 8 ------- null}
- -t 0.1626998 -s 6 -d 5 -p tcp -e 1040 -c 1 -i 12 -a 1 -x {6.0 1.0 8 ------- null}
h -t 0.1626998 -s 6 -d 5 -p tcp -e 1040 -c 1 -i 12 -a 1 -x {6.0 1.0 -1 ------- null}
r -t 0.1629998 -s 6 -d 5 -p tcp -e 1040 -c 1 -i 11 -a 1 -x {6.0 1.0 7 ------- null}
+ -t 0.1629998 -s 5 -d 4 -p tcp -e 1040 -c 1 -i 11 -a 1 -x {6.0 1.0 7 ------- null}
- -t 0.1629998 -s 5 -d 4 -p tcp -e 1040 -c 1 -i 11 -a 1 -x {6.0 1.0 7 ------- null}
h -t 0.1629998 -s 5 -d 4 -p tcp -e 1040 -c 1 -i 11 -a 1 -x {6.0 1.0 -1 ------- null}
r -t 0.163083 -s 6 -d 5 -p tcp -e 1040 -c 1 -i 12 -a 1 -x {6.0 1.0 8 ------- null}
+ -t 0.163083 -s 5 -d 4 -p tcp -e 1040 -c 1 -i 12 -a 1 -x {6.0 1.0 8 ------- null}
- -t 0.163083 -s 5 -d 4 -p tcp -e 1040 -c 1 -i 12 -a 1 -x {6.0 1.0 8 ------- null}
h -t 0.163083 -s 5 -d 4 -p tcp -e 1040 -c 1 -i 12 -a 1 -x {6.0 1.0 -1 ------- null}
r -t 0.163383 -s 5 -d 4 -p tcp -e 1040 -c 1 -i 11 -a 1 -x {6.0 1.0 7 ------- null}
+ -t 0.163383 -s 4 -d 3 -p tcp -e 1040 -c 1 -i 11 -a 1 -x {6.0 1.0 7 ------- null}
r -t 0.1634662 -s 5 -d 4 -p tcp -e 1040 -c 1 -i 12 -a 1 -x {6.0 1.0 8 ------- null}
+ -t 0.1634662 -s 4 -d 3 -p tcp -e 1040 -c 1 -i 12 -a 1 -x {6.0 1.0 8 ------- null}
- -t 0.1721322 -s 4 -d 3 -p tcp -e 1040 -c 1 -i 8 -a 1 -x {6.0 1.0 5 ------- null}
h -t 0.1721322 -s 4 -d 3 -p tcp -e 1040 -c 1 -i 8 -a 1 -x {6.0 1.0 -1 ------- null}
r -t 0.1723322 -s 4 -d 3 -p tcp -e 1040 -c 1 -i 6 -a 1 -x {6.0 1.0 4 ------- null}
+ -t 0.1723322 -s 3 -d 2 -p tcp -e 1040 -c 1 -i 6 -a 1 -x {6.0 1.0 4 ------- null}
- -t 0.1723322 -s 3 -d 2 -p tcp -e 1040 -c 1 -i 6 -a 1 -x {6.0 1.0 4 ------- null}
h -t 0.1723322 -s 3 -d 2 -p tcp -e 1040 -c 1 -i 6 -a 1 -x {6.0 1.0 -1 ------- null}
r -t 0.1733642 -s 3 -d 2 -p tcp -e 1040 -c 1 -i 6 -a 1 -x {6.0 1.0 4 ------- null}
+ -t 0.1733642 -s 2 -d 1 -p tcp -e 1040 -c 1 -i 6 -a 1 -x {6.0 1.0 4 ------- null}
- -t 0.1733642 -s 2 -d 1 -p tcp -e 1040 -c 1 -i 6 -a 1 -x {6.0 1.0 4 ------- null}
h -t 0.1733642 -s 2 -d 1 -p tcp -e 1040 -c 1 -i 6 -a 1 -x {6.0 1.0 -1 ------- null}
r -t 0.1743962 -s 2 -d 1 -p tcp -e 1040 -c 1 -i 6 -a 1 -x {6.0 1.0 4 ------- null}
+ -t 0.1743962 -s 1 -d 2 -p ack -e 40 -c 1 -i 13 -a 1 -x {1.0 6.0 4 ------- null}
- -t 0.1743962 -s 1 -d 2 -p ack -e 40 -c 1 -i 13 -a 1 -x {1.0 6.0 4 ------- null}
h -t 0.1743962 -s 1 -d 2 -p ack -e 40 -c 1 -i 13 -a 1 -x {1.0 6.0 -1 ------- null}
r -t 0.1746282 -s 1 -d 2 -p ack -e 40 -c 1 -i 13 -a 1 -x {1.0 6.0 4 ------- null}
+ -t 0.1746282 -s 2 -d 3 -p ack -e 40 -c 1 -i 13 -a 1 -x {1.0 6.0 4 ------- null}
- -t 0.1746282 -s 2 -d 3 -p ack -e 40 -c 1 -i 13 -a 1 -x {1.0 6.0 4 ------- null}
h -t 0.1746282 -s 2 -d 3 -p ack -e 40 -c 1 -i 13 -a 1 -x {1.0 6.0 -1 ------- null}
r -t 0.1748602 -s 2 -d 3 -p ack -e 40 -c 1 -i 13 -a 1 -x {1.0 6.0 4 ------- null}
+ -t 0.1748602 -s 3 -d 4 -p ack -e 40 -c 1 -i 13 -a 1 -x {1.0 6.0 4 ------- null}
- -t 0.1748602 -s 3 -d 4 -p ack -e 40 -c 1 -i 13 -a 1 -x {1.0 6.0 4 ------- null}
h -t 0.1748602 -s 3 -d 4 -p ack -e 40 -c 1 -i 13 -a 1 -x {1.0 6.0 -1 ------- null}
r -t 0.1782602 -s 3 -d 4 -p ack -e 40 -c 1 -i 13 -a 1 -x {1.0 6.0 4 ------- null}
+ -t 0.1782602 -s 4 -d 5 -p ack -e 40 -c 1 -i 13 -a 1 -x {1.0 6.0 4 ------- null}
- -t 0.1782602 -s 4 -d 5 -p ack -e 40 -c 1 -i 13 -a 1 -x {1.0 6.0 4 ------- null}
h -t 0.1782602 -s 4 -d 5 -p ack -e 40 -c 1 -i 13 -a 1 -x {1.0 6.0 -1 ------- null}
r -t 0.1785634 -s 4 -d 5 -p ack -e 40 -c 1 -i 13 -a 1 -x {1.0 6.0 4 ------- null}
+ -t 0.1785634 -s 5 -d 6 -p ack -e 40 -c 1 -i 13 -a 1 -x {1.0 6.0 4 ------- null}
- -t 0.1785634 -s 5 -d 6 -p ack -e 40 -c 1 -i 13 -a 1 -x {1.0 6.0 4 ------- null}
h -t 0.1785634 -s 5 -d 6 -p ack -e 40 -c 1 -i 13 -a 1 -x {1.0 6.0 -1 ------- null}
r -t 0.1788666 -s 5 -d 6 -p ack -e 40 -c 1 -i 13 -a 1 -x {1.0 6.0 4 ------- null}
+ -t 0.1788666 -s 6 -d 5 -p tcp -e 1040 -c 1 -i 14 -a 1 -x {6.0 1.0 9 ------- null}
- -t 0.1788666 -s 6 -d 5 -p tcp -e 1040 -c 1 -i 14 -a 1 -x {6.0 1.0 9 ------- null}
h -t 0.1788666 -s 6 -d 5 -p tcp -e 1040 -c 1 -i 14 -a 1 -x {6.0 1.0 -1 ------- null}
+ -t 0.1788666 -s 6 -d 5 -p tcp -e 1040 -c 1 -i 15 -a 1 -x {6.0 1.0 10 ------- null}
- -t 0.1789498 -s 6 -d 5 -p tcp -e 1040 -c 1 -i 15 -a 1 -x {6.0 1.0 10 ------- null}
h -t 0.1789498 -s 6 -d 5 -p tcp -e 1040 -c 1 -i 15 -a 1 -x {6.0 1.0 -1 ------- null}
r -t 0.1792498 -s 6 -d 5 -p tcp -e 1040 -c 1 -i 14 -a 1 -x {6.0 1.0 9 ------- null}
+ -t 0.1792498 -s 5 -d 4 -p tcp -e 1040 -c 1 -i 14 -a 1 -x {6.0 1.0 9 ------- null}
- -t 0.1792498 -s 5 -d 4 -p tcp -e 1040 -c 1 -i 14 -a 1 -x {6.0 1.0 9 ------- null}
h -t 0.1792498 -s 5 -d 4 -p tcp -e 1040 -c 1 -i 14 -a 1 -x {6.0 1.0 -1 ------- null}
r -t 0.179333 -s 6 -d 5 -p tcp -e 1040 -c 1 -i 15 -a 1 -x {6.0 1.0 10 ------- null}
+ -t 0.179333 -s 5 -d 4 -p tcp -e 1040 -c 1 -i 15 -a 1 -x {6.0 1.0 10 ------- null}
- -t 0.179333 -s 5 -d 4 -p tcp -e 1040 -c 1 -i 15 -a 1 -x {6.0 1.0 10 ------- null}
h -t 0.179333 -s 5 -d 4 -p tcp -e 1040 -c 1 -i 15 -a 1 -x {6.0 1.0 -1 ------- null}
r -t 0.179633 -s 5 -d 4 -p tcp -e 1040 -c 1 -i 14 -a 1 -x {6.0 1.0 9 ------- null}
+ -t 0.179633 -s 4 -d 3 -p tcp -e 1040 -c 1 -i 14 -a 1 -x {6.0 1.0 9 ------- null}
r -t 0.1797162 -s 5 -d 4 -p tcp -e 1040 -c 1 -i 15 -a 1 -x {6.0 1.0 10 ------- null}
+ -t 0.1797162 -s 4 -d 3 -p tcp -e 1040 -c 1 -i 15 -a 1 -x {6.0 1.0 10 ------- null}
- -t 0.1883822 -s 4 -d 3 -p tcp -e 1040 -c 1 -i 9 -a 1 -x {6.0 1.0 6 ------- null}
h -t 0.1883822 -s 4 -d 3 -p tcp -e 1040 -c 1 -i 9 -a 1 -x {6.0 1.0 -1 ------- null}
r -t 0.1885822 -s 4 -d 3 -p tcp -e 1040 -c 1 -i 8 -a 1 -x {6.0 1.0 5 ------- null}
+ -t 0.1885822 -s 3 -d 2 -p tcp -e 1040 -c 1 -i 8 -a 1 -x {6.0 1.0 5 ------- null}
- -t 0.1885822 -s 3 -d 2 -p tcp -e 1040 -c 1 -i 8 -a 1 -x {6.0 1.0 5 ------- null}
h -t 0.1885822 -s 3 -d 2 -p tcp -e 1040 -c 1 -i 8 -a 1 -x {6.0 1.0 -1 ------- null}
r -t 0.1896142 -s 3 -d 2 -p tcp -e 1040 -c 1 -i 8 -a 1 -x {6.0 1.0 5 ------- null}
+ -t 0.1896142 -s 2 -d 1 -p tcp -e 1040 -c 1 -i 8 -a 1 -x {6.0 1.0 5 ------- null}
- -t 0.1896142 -s 2 -d 1 -p tcp -e 1040 -c 1 -i 8 -a 1 -x {6.0 1.0 5 ------- null}
h -t 0.1896142 -s 2 -d 1 -p tcp -e 1040 -c 1 -i 8 -a 1 -x {6.0 1.0 -1 ------- null}
r -t 0.1906462 -s 2 -d 1 -p tcp -e 1040 -c 1 -i 8 -a 1 -x {6.0 1.0 5 ------- null}
+ -t 0.1906462 -s 1 -d 2 -p ack -e 40 -c 1 -i 16 -a 1 -x {1.0 6.0 5 ------- null}
- -t 0.1906462 -s 1 -d 2 -p ack -e 40 -c 1 -i 16 -a 1 -x {1.0 6.0 5 ------- null}
h -t 0.1906462 -s 1 -d 2 -p ack -e 40 -c 1 -i 16 -a 1 -x {1.0 6.0 -1 ------- null}
r -t 0.1908782 -s 1 -d 2 -p ack -e 40 -c 1 -i 16 -a 1 -x {1.0 6.0 5 ------- null}
+ -t 0.1908782 -s 2 -d 3 -p ack -e 40 -c 1 -i 16 -a 1 -x {1.0 6.0 5 ------- null}
- -t 0.1908782 -s 2 -d 3 -p ack -e 40 -c 1 -i 16 -a 1 -x {1.0 6.0 5 ------- null}
h -t 0.1908782 -s 2 -d 3 -p ack -e 40 -c 1 -i 16 -a 1 -x {1.0 6.0 -1 ------- null}
r -t 0.1911102 -s 2 -d 3 -p ack -e 40 -c 1 -i 16 -a 1 -x {1.0 6.0 5 ------- null}
+ -t 0.1911102 -s 3 -d 4 -p ack -e 40 -c 1 -i 16 -a 1 -x {1.0 6.0 5 ------- null}
- -t 0.1911102 -s 3 -d 4 -p ack -e 40 -c 1 -i 16 -a 1 -x {1.0 6.0 5 ------- null}
h -t 0.1911102 -s 3 -d 4 -p ack -e 40 -c 1 -i 16 -a 1 -x {1.0 6.0 -1 ------- null}
r -t 0.1945102 -s 3 -d 4 -p ack -e 40 -c 1 -i 16 -a 1 -x {1.0 6.0 5 ------- null}
+ -t 0.1945102 -s 4 -d 5 -p ack -e 40 -c 1 -i 16 -a 1 -x {1.0 6.0 5 ------- null}
- -t 0.1945102 -s 4 -d 5 -p ack -e 40 -c 1 -i 16 -a 1 -x {1.0 6.0 5 ------- null}
h -t 0.1945102 -s 4 -d 5 -p ack -e 40 -c 1 -i 16 -a 1 -x {1.0 6.0 -1 ------- null}
r -t 0.1948134 -s 4 -d 5 -p ack -e 40 -c 1 -i 16 -a 1 -x {1.0 6.0 5 ------- null}
+ -t 0.1948134 -s 5 -d 6 -p ack -e 40 -c 1 -i 16 -a 1 -x {1.0 6.0 5 ------- null}
- -t 0.1948134 -s 5 -d 6 -p ack -e 40 -c 1 -i 16 -a 1 -x {1.0 6.0 5 ------- null}
h -t 0.1948134 -s 5 -d 6 -p ack -e 40 -c 1 -i 16 -a 1 -x {1.0 6.0 -1 ------- null}
r -t 0.1951166 -s 5 -d 6 -p ack -e 40 -c 1 -i 16 -a 1 -x {1.0 6.0 5 ------- null}
+ -t 0.1951166 -s 6 -d 5 -p tcp -e 1040 -c 1 -i 17 -a 1 -x {6.0 1.0 11 ------- null}
- -t 0.1951166 -s 6 -d 5 -p tcp -e 1040 -c 1 -i 17 -a 1 -x {6.0 1.0 11 ------- null}
h -t 0.1951166 -s 6 -d 5 -p tcp -e 1040 -c 1 -i 17 -a 1 -x {6.0 1.0 -1 ------- null}
+ -t 0.1951166 -s 6 -d 5 -p tcp -e 1040 -c 1 -i 18 -a 1 -x {6.0 1.0 12 ------- null}
- -t 0.1951998 -s 6 -d 5 -p tcp -e 1040 -c 1 -i 18 -a 1 -x {6.0 1.0 12 ------- null}
h -t 0.1951998 -s 6 -d 5 -p tcp -e 1040 -c 1 -i 18 -a 1 -x {6.0 1.0 -1 ------- null}
r -t 0.1954998 -s 6 -d 5 -p tcp -e 1040 -c 1 -i 17 -a 1 -x {6.0 1.0 11 ------- null}
+ -t 0.1954998 -s 5 -d 4 -p tcp -e 1040 -c 1 -i 17 -a 1 -x {6.0 1.0 11 ------- null}
- -t 0.1954998 -s 5 -d 4 -p tcp -e 1040 -c 1 -i 17 -a 1 -x {6.0 1.0 11 ------- null}
h -t 0.1954998 -s 5 -d 4 -p tcp -e 1040 -c 1 -i 17 -a 1 -x {6.0 1.0 -1 ------- null}
r -t 0.195583 -s 6 -d 5 -p tcp -e 1040 -c 1 -i 18 -a 1 -x {6.0 1.0 12 ------- null}
+ -t 0.195583 -s 5 -d 4 -p tcp -e 1040 -c 1 -i 18 -a 1 -x {6.0 1.0 12 ------- null}
- -t 0.195583 -s 5 -d 4 -p tcp -e 1040 -c 1 -i 18 -a 1 -x {6.0 1.0 12 ------- null}
h -t 0.195583 -s 5 -d 4 -p tcp -e 1040 -c 1 -i 18 -a 1 -x {6.0 1.0 -1 ------- null}
r -t 0.195883 -s 5 -d 4 -p tcp -e 1040 -c 1 -i 17 -a 1 -x {6.0 1.0 11 ------- null}
+ -t 0.195883 -s 4 -d 3 -p tcp -e 1040 -c 1 -i 17 -a 1 -x {6.0 1.0 11 ------- null}
r -t 0.1959662 -s 5 -d 4 -p tcp -e 1040 -c 1 -i 18 -a 1 -x {6.0 1.0 12 ------- null}
+ -t 0.1959662 -s 4 -d 3 -p tcp -e 1040 -c 1 -i 18 -a 1 -x {6.0 1.0 12 ------- null}
- -t 0.2046322 -s 4 -d 3 -p tcp -e 1040 -c 1 -i 11 -a 1 -x {6.0 1.0 7 ------- null}
h -t 0.2046322 -s 4 -d 3 -p tcp -e 1040 -c 1 -i 11 -a 1 -x {6.0 1.0 -1 ------- null}
r -t 0.2048322 -s 4 -d 3 -p tcp -e 1040 -c 1 -i 9 -a 1 -x {6.0 1.0 6 ------- null}
+ -t 0.2048322 -s 3 -d 2 -p tcp -e 1040 -c 1 -i 9 -a 1 -x {6.0 1.0 6 ------- null}
- -t 0.2048322 -s 3 -d 2 -p tcp -e 1040 -c 1 -i 9 -a 1 -x {6.0 1.0 6 ------- null}
h -t 0.2048322 -s 3 -d 2 -p tcp -e 1040 -c 1 -i 9 -a 1 -x {6.0 1.0 -1 ------- null}
r -t 0.2058642 -s 3 -d 2 -p tcp -e 1040 -c 1 -i 9 -a 1 -x {6.0 1.0 6 ------- null}
+ -t 0.2058642 -s 2 -d 1 -p tcp -e 1040 -c 1 -i 9 -a 1 -x {6.0 1.0 6 ------- null}
- -t 0.2058642 -s 2 -d 1 -p tcp -e 1040 -c 1 -i 9 -a 1 -x {6.0 1.0 6 ------- null}
h -t 0.2058642 -s 2 -d 1 -p tcp -e 1040 -c 1 -i 9 -a 1 -x {6.0 1.0 -1 ------- null}
r -t 0.2068962 -s 2 -d 1 -p tcp -e 1040 -c 1 -i 9 -a 1 -x {6.0 1.0 6 ------- null}
+ -t 0.2068962 -s 1 -d 2 -p ack -e 40 -c 1 -i 19 -a 1 -x {1.0 6.0 6 ------- null}
- -t 0.2068962 -s 1 -d 2 -p ack -e 40 -c 1 -i 19 -a 1 -x {1.0 6.0 6 ------- null}
h -t 0.2068962 -s 1 -d 2 -p ack -e 40 -c 1 -i 19 -a 1 -x {1.0 6.0 -1 ------- null}
r -t 0.2071282 -s 1 -d 2 -p ack -e 40 -c 1 -i 19 -a 1 -x {1.0 6.0 6 ------- null}
+ -t 0.2071282 -s 2 -d 3 -p ack -e 40 -c 1 -i 19 -a 1 -x {1.0 6.0 6 ------- null}
- -t 0.2071282 -s 2 -d 3 -p ack -e 40 -c 1 -i 19 -a 1 -x {1.0 6.0 6 ------- null}
h -t 0.2071282 -s 2 -d 3 -p ack -e 40 -c 1 -i 19 -a 1 -x {1.0 6.0 -1 ------- null}
r -t 0.2073602 -s 2 -d 3 -p ack -e 40 -c 1 -i 19 -a 1 -x {1.0 6.0 6 ------- null}
+ -t 0.2073602 -s 3 -d 4 -p ack -e 40 -c 1 -i 19 -a 1 -x {1.0 6.0 6 ------- null}
- -t 0.2073602 -s 3 -d 4 -p ack -e 40 -c 1 -i 19 -a 1 -x {1.0 6.0 6 ------- null}
h -t 0.2073602 -s 3 -d 4 -p ack -e 40 -c 1 -i 19 -a 1 -x {1.0 6.0 -1 ------- null}
r -t 0.2107602 -s 3 -d 4 -p ack -e 40 -c 1 -i 19 -a 1 -x {1.0 6.0 6 ------- null}
+ -t 0.2107602 -s 4 -d 5 -p ack -e 40 -c 1 -i 19 -a 1 -x {1.0 6.0 6 ------- null}
- -t 0.2107602 -s 4 -d 5 -p ack -e 40 -c 1 -i 19 -a 1 -x {1.0 6.0 6 ------- null}
h -t 0.2107602 -s 4 -d 5 -p ack -e 40 -c 1 -i 19 -a 1 -x {1.0 6.0 -1 ------- null}
r -t 0.2110634 -s 4 -d 5 -p ack -e 40 -c 1 -i 19 -a 1 -x {1.0 6.0 6 ------- null}
+ -t 0.2110634 -s 5 -d 6 -p ack -e 40 -c 1 -i 19 -a 1 -x {1.0 6.0 6 ------- null}
- -t 0.2110634 -s 5 -d 6 -p ack -e 40 -c 1 -i 19 -a 1 -x {1.0 6.0 6 ------- null}
h -t 0.2110634 -s 5 -d 6 -p ack -e 40 -c 1 -i 19 -a 1 -x {1.0 6.0 -1 ------- null}
r -t 0.2113666 -s 5 -d 6 -p ack -e 40 -c 1 -i 19 -a 1 -x {1.0 6.0 6 ------- null}
+ -t 0.2113666 -s 6 -d 5 -p tcp -e 1040 -c 1 -i 20 -a 1 -x {6.0 1.0 13 ------- null}
- -t 0.2113666 -s 6 -d 5 -p tcp -e 1040 -c 1 -i 20 -a 1 -x {6.0 1.0 13 ------- null}
h -t 0.2113666 -s 6 -d 5 -p tcp -e 1040 -c 1 -i 20 -a 1 -x {6.0 1.0 -1 ------- null}
+ -t 0.2113666 -s 6 -d 5 -p tcp -e 1040 -c 1 -i 21 -a 1 -x {6.0 1.0 14 ------- null}
- -t 0.2114498 -s 6 -d 5 -p tcp -e 1040 -c 1 -i 21 -a 1 -x {6.0 1.0 14 ------- null}
h -t 0.2114498 -s 6 -d 5 -p tcp -e 1040 -c 1 -i 21 -a 1 -x {6.0 1.0 -1 ------- null}
r -t 0.2117498 -s 6 -d 5 -p tcp -e 1040 -c 1 -i 20 -a 1 -x {6.0 1.0 13 ------- null}
+ -t 0.2117498 -s 5 -d 4 -p tcp -e 1040 -c 1 -i 20 -a 1 -x {6.0 1.0 13 ------- null}
- -t 0.2117498 -s 5 -d 4 -p tcp -e 1040 -c 1 -i 20 -a 1 -x {6.0 1.0 13 ------- null}
h -t 0.2117498 -s 5 -d 4 -p tcp -e 1040 -c 1 -i 20 -a 1 -x {6.0 1.0 -1 ------- null}
r -t 0.211833 -s 6 -d 5 -p tcp -e 1040 -c 1 -i 21 -a 1 -x {6.0 1.0 14 ------- null}
+ -t 0.211833 -s 5 -d 4 -p tcp -e 1040 -c 1 -i 21 -a 1 -x {6.0 1.0 14 ------- null}
- -t 0.211833 -s 5 -d 4 -p tcp -e 1040 -c 1 -i 21 -a 1 -x {6.0 1.0 14 ------- null}
h -t 0.211833 -s 5 -d 4 -p tcp -e 1040 -c 1 -i 21 -a 1 -x {6.0 1.0 -1 ------- null}